185
 energy: -39.388216743195 gnorm: 0.000454450045 xtb: 6.5.1 (579679a)
C           16.99168029709512        6.11694401179287       32.76118112174581
C           15.99827073653350        5.83154569434069       33.66756141934607
C           16.16794195857466        6.09086359139552       35.03017539796503
C           17.38733806184678        6.63446979278097       35.44085203019912
C           18.37792836918927        6.92130894981825       34.53594017298052
C           18.21154930255656        6.65934923308282       33.17390709801359
C           19.24828059758713        6.97006894106090       32.19388200270249
C           20.57531303866921        7.00334557805151       32.43308181714581
C           21.21348087342777        6.57701863993619       33.68482486920094
C           20.96816952447648        5.30819804445603       34.21901880762239
C           21.49436821742054        4.93792440300494       35.43163275122217
C           22.27726586067468        5.82719439700428       36.17300887362955
C           22.55472213801719        7.08210504477471       35.62086764297957
C           22.04056854769549        7.44690113598448       34.40085974850644
C           22.74702730838741        5.46543023352198       37.51380008063489
C           22.58075311087036        6.21307035498281       38.62561264514022
C           21.78160082057367        7.42700073974198       38.73575596999091
C           22.06302356927434        8.40714401418322       39.72301583109301
C           21.20104718223994        9.49175855302020       39.85954651826732
C           20.07950872939130        9.66232502810946       39.05546266939697
C           19.83505157855728        8.70100981261315       38.07112723941960
C           20.65369882711345        7.61160861083118       37.93017283367724
C           23.21813376350106        8.31827739684513       40.61558009547808
C           24.45976636209439        7.81624354666776       40.32433688470725
C           25.36216317203598        7.84613501286276       41.40921396098687
C           24.83579500830047        8.37230551088654       42.56008481720732
S           23.19507534108993        8.88086448651335       42.26486199239014
C           19.22624977586691       10.83449288426229       39.22601721820521
C           17.91385270054433       10.90508929016520       38.92616062671920
C           17.08097760788338        9.76711407284307       38.51815093581304
C           16.35662739468144        9.80415924692731       37.32408904050732
C           15.64265519587435        8.70985868350035       36.90162711140746
C           15.60809697303144        7.53592676798286       37.66033671932485
C           16.29626815513678        7.51449406886817       38.87615507388911
C           17.02236942124812        8.60365043647640       39.29134407491284
C           15.11132488473742        5.75372430066456       35.97924484578100
C           14.90327938550696        6.34298058706720       37.17426037212291
C           25.49918481578392        8.52395778335614       43.85423480437304
C           25.16448544378451        9.61969922706772       44.64515012147223
C           25.74520095391975        9.85252425987628       45.88689388827363
C           26.70754204812520        8.94292752569366       46.33314474945773
C           27.03929809036686        7.84370015409587       45.58594648761537
C           26.45977286476426        7.59722449118671       44.33726400944784
C           26.76946606408105        6.37365766419072       43.60726933115310
C           27.93422333141255        5.69203141779622       43.65740410857797
C           29.14965261505021        6.15331347404172       44.33542268195232
C           29.79155578679493        5.34294083757704       45.27670498417753
C           30.85658393255375        5.81701257004207       46.00157061723321
C           31.33836233604388        7.11609755589950       45.80823218071797
C           30.73658159672515        7.90378395427067       44.82221467219655
C           29.66176127071133        7.43522381491979       44.10813122620619
C           32.39946413773011        7.66400989115234       46.65839564462890
C           32.40364048550408        7.62716507036287       48.00833434879422
C           31.29970272316656        7.18798967550258       48.85435168055228
C           31.52453525760499        6.63282743183956       50.14117299806278
C           30.42762883329333        6.33259237277146       50.94406076994920
C           29.11626646151347        6.53944387866439       50.53143297915472
C           28.91531685703330        7.05935353696627       49.25012265400521
C           29.97628343458473        7.38644208460437       48.44746407513549
C           32.86013117394239        6.35978185141710       50.66746453007887
C           33.98197188973636        6.00483014673946       49.96487650663873
C           35.12703202005382        5.81366976588965       50.76744499122096
C           34.91234215031982        6.01606569910772       52.10587956125518
S           33.23850672011203        6.42369413921520       52.36768587781351
C           28.00842777638871        6.17564211948535       51.40927296346346
C           26.77629172227000        6.72213744689343       51.39541949801907
C           26.37931813011203        7.88307231903242       50.58894223512316
C           27.08898114489950        9.08569116946880       50.65990508121779
C           26.76293874228252       10.14754327344868       49.85237808339043
C           25.72102311859754       10.04756765494139       48.92695029465165
C           24.99175452143760        8.85571275596236       48.87799527707192
C           25.30843478593424        7.79898072121756       49.69565783229732
C           25.37707424803948       11.03570662014705       46.65888961345989
C           25.43006307923652       11.14906816190497       48.00115069059743
C           35.88790777863306        5.90138111391879       53.18870448162030
C           35.45024240593638        5.44318143206757       54.42840652417905
C           36.30701245088945        5.28400720906914       55.51172891433894
C           37.65875705045306        5.58058445823243       55.31870202832854
C           38.11154181104913        6.05964238454897       54.11769053946789
C           37.25669348253189        6.24034528527845       53.02552729369069
C           37.74180402790694        6.85337173643986       51.79504102366023
C           39.00556185288564        6.79875010044950       51.32280535690943
C           40.07842504515052        5.97669188972673       51.89367217976063
C           41.27207743650882        6.56209814749742       52.32646575231020
C           42.22354544198734        5.81594950176419       52.97559719679209
C           42.03338062164838        4.44995951710378       53.20701817510582
C           40.86650937150327        3.85275894767943       52.72165239422338
C           39.90663520091142        4.60184668712201       52.08750285094721
C           42.99990288325387        3.67719398852637       53.98734350267798
C           43.52934264195227        4.08822476963896       55.15774238008422
C           43.10876995557005        5.27893840393393       55.90002859223913
C           44.04268822616252        6.13291406361346       56.54024274623954
C           43.56304522375262        7.21779590976755       57.26989005920642
C           42.20485644008365        7.50275293325113       57.38676547445021
C           41.30821164765619        6.67031137498029       56.71287203900675
C           41.74866922515412        5.58453562155414       56.00407376139746
C           45.48148768887672        5.94214606042465       56.37427994928333
C           46.48200006530544        6.60521063523919       57.03090234060395
C           47.79138164767937        6.24943988024284       56.60235891689739
C           47.80495467342200        5.31057041771505       55.62850557168818
S           46.19639488863188        4.82262457713495       55.24164591468708
C           41.77695247242397        8.67098800789408       58.14833878783738
C           40.54132357350325        8.91244633895858       58.63128949723156
C           39.40529436597993        7.98108337528277       58.57014515330676
C           39.46797984789696        6.72357220401662       59.17887572665065
C           38.44888612581070        5.81473972452658       59.02865830310349
C           37.32765207017382        6.11949753160039       58.25243750381862
C           37.24452905554982        7.39397887746663       57.68380945173296
C           38.25805883871524        8.30646494792319       57.84171037025680
C           35.79673019552137        4.79615727542630       56.79077522165812
C           36.29037870892373        5.11288398050247       58.00482193232384
H           15.06781701925105        5.40680936094808       33.33148910784621
H           17.55225464126498        6.82088351082694       36.48678363912867
H           19.29805691478981        7.36140942940475       34.87608242554649
H           18.90186267166269        7.21770038702859       31.20365679208121
H           21.23187426128158        7.35159750943495       31.65097125276219
H           20.33717742505477        4.62880819400808       33.67203698766512
H           21.27662126569080        3.96771555598551       35.84412621543465
H           23.16333537132578        7.77148631452797       36.18056766411061
H           22.23924321524195        8.42538180555595       33.99851101549512
H           23.26382084068429        4.52245899628937       37.60252805923163
H           23.02913203495924        5.86100119655447       39.54034712728405
H           21.41154461917356       10.22255393599687       40.61913318158177
H           18.98851090578465        8.82138850655925       37.41916535687233
H           20.41223373641369        6.86437599761428       37.19580531023922
H           24.72868211963196        7.44998133918591       39.34564824467611
H           26.38313530418027        7.50532131603909       41.33403456375526
H           19.71218253713853       11.72014054484472       39.60203309761228
H           17.41924372888839       11.86108504881412       39.00001631862117
H           16.39241307876858       10.69503243172961       36.72087861802258
H           15.11122837537332        8.73770565385906       35.96585463323449
H           16.27634955164083        6.61685747056941       39.47000347287370
H           17.57376186388865        8.56724099725711       40.21521593620459
H           14.46647858912059        4.93820666252761       35.69460983852732
H           14.15314176670230        5.92773455512271       37.82928551284245
H           24.42634886490206       10.31028108154078       44.27969834713623
H           27.19008328811526        9.11190493612707       47.27905000092560
H           27.74967660537841        7.13749546177129       45.97672421422479
H           25.96562763241878        5.95700876567106       43.02244215803861
H           27.99042021184344        4.73259623488862       43.16714346243612
H           29.40987345968692        4.35277568038761       45.45763714927503
H           31.31913090757027        5.19911491677659       46.75205851194708
H           31.10116482240707        8.90366076870068       44.66048003235050
H           29.17980116775469        8.06398771240599       43.37919797905543
H           33.23153425880786        8.12882663718357       46.15295291176045
H           33.27143025020858        8.00764807664797       48.52228242323590
H           30.60476903790958        5.92468908241674       51.92257081490643
H           27.91129500426007        7.20381905331444       48.89384683975070
H           29.79103434851802        7.82567990720222       47.48355601384097
H           33.98242802220641        5.85332398614234       48.89672701441005
H           36.08087654201127        5.50712524434428       50.36686740398466
H           28.20493908996595        5.37964866271004       52.10901379546173
H           26.01551610788965        6.29334603619052       52.02901946283016
H           27.91354892229978        9.16097624992573       51.34790264775036
H           27.33097535007182       11.06068569508889       49.90038565301572
H           24.18426367571879        8.77092448383949       48.17113146958211
H           24.75406252897073        6.87837238981739       49.63272900519713
H           25.06237786733461       11.89295910122824       46.08621692337513
H           25.23114369759755       12.11182338255158       48.44557685300749
H           34.40856090312983        5.20861515214769       54.55134976594679
H           38.34617088687425        5.43746699172761       56.13330072889995
H           39.14767753862212        6.32804572126259       54.01774723869369
H           37.02640044927529        7.44933631427443       51.25220431855428
H           39.26059798070045        7.39809910342894       50.46255377647738
H           41.41602686799670        7.61911103155014       52.18216461592493
H           43.12406718676358        6.28137084092809       53.33788898710583
H           40.71032975236139        2.80117245258230       52.89072262805267
H           38.99232234723503        4.14183973908457       51.75372672095800
H           43.29444110134515        2.71873365356873       53.59038649787884
H           44.27236457954969        3.46402795103839       55.62892801898612
H           44.26267775321280        7.87696280218288       57.74928551788840
H           40.25809694133925        6.89374471926130       56.74050789629646
H           41.03693986043405        4.94492538701827       55.51163704873185
H           46.30317375665012        7.34180595881471       57.79835914719552
H           48.68645983903205        6.69662702095892       57.01062772399329
H           48.68266888379939        4.90506558160149       55.16163567299297
H           42.53597447196817        9.41774813672128       58.31510185589239
H           40.35373699029333        9.86492146529122       59.10290243935739
H           40.34557547344772        6.46605321609228       59.74665841553386
H           38.52156163869530        4.83918529172544       59.47787557847803
H           36.37928623625753        7.64310615938793       57.09369175797296
H           38.19699719366586        9.27266234993728       57.37095388798810
H           34.96907961054793        4.10750027249919       56.73833468331888
H           35.89594763663250        4.60525183255682       58.87095464615771
H           16.84053182283402        5.91424766254353       31.71469370411666
